# vtk DataFile Version 2.0
dogbone, Created by Gmsh 4.13.1 
ASCII
DATASET UNSTRUCTURED_GRID
POINTS 125 double
0 0 0
60 0 0
60 20 0
50 30 0
50 110 0
60 120 0
60 140 0
0 140 0
0 120 0
10 110 0
10 30 0
0 20 0
9.999999999997673 0 0
19.99999999997723 0 0
29.99999999993921 0 0
39.99999999995901 0 0
49.99999999997952 0 0
60 9.999999999984796 0
52.92893217617549 22.92893220009356 0
50 39.99999999999878 0
50 49.99999999999896 0
50 59.99999999999913 0
50 69.9999999999993 0
50 79.99999999999949 0
50 89.99999999999966 0
50 99.99999999999983 0
52.92893221009768 117.0710678338286 0
60 130 0
49.99999999997479 140 0
39.99999999999491 140 0
30.00000000007494 140 0
20.00000000005042 140 0
10.00000000002522 140 0
0 130 0
7.071067825549971 117.071067798181 0
10 100 0
10 90 0
10 80 0
10 70 0
10 60 0
10 50 0
10 40 0
7.071067795819515 22.92893217208857 0
0 10 0
30.40646796449439 20.66479092086192 0
29.5935320357101 119.3352090788252 0
29.17400270286945 42.46679829343707 0
29.99999999999999 98.25757575757578 0
29.94641265168752 74.35089189642983 0
26.84659090909089 58.37121212121215 0
41.91977935916692 125.9729223470516 0
18.0802206413636 14.027077652706 0
17.69382236275895 125.3621864400847 0
42.30617763784504 14.63781355975348 0
22.44633838383837 108.2954545454545 0
37.55366161616161 31.70454545454546 0
22.99902448386754 32.13497726217637 0
36.3032931323696 107.252415554505 0
22.27197802188269 87.4530250182262 0
37.4456788369973 87.00510498874667 0
39.09994303382526 65.73371318748789 0
37.52784687243293 50.09943289144161 0
31.46479354135052 129.1666666666616 0
28.53520645918038 10.83333333333744 0
16.46577192193435 116.2078830631456 0
43.53422807992262 23.79211693598413 0
16.56274504738402 23.93734968934809 0
43.40334311938858 115.9463039347205 0
20.83670609124744 67.14265523406232 0
21.63827726019407 49.1668745043894 0
8.525684673998301 126.1595934111289 0
51.32521246525624 126.346285060892 0
51.47431532600548 13.84040658784885 0
8.674787534161831 13.65371494293732 0
40.113843133294 77.85045746166145 0
21.29193357761434 98.33825508767616 0
40.13297887985684 40.70083629636328 0
39.36458211382654 97.84616861980761 0
19.82146133632422 78.11572347252654 0
18.47219604574907 40.8931668425449 0
30.27973014598153 29.03176163124396 0
29.99999999999999 110.4722693721809 0
23.08131477313036 132.2478815117155 0
36.91868522704366 7.752118488283159 0
18.20497757706821 56.92753917669899 0
36.51005150035478 120.7889990014031 0
23.48510395262311 19.19438008652038 0
37.1158366536911 19.65045516201016 0
22.88416334709024 120.3495448391649 0
45.83756541631445 133.0212411665928 0
14.29222649327368 132.8274428141357 0
45.70777350685507 7.172557185326804 0
14.16243458376195 6.978758835140199 0
15.65513147260074 105 0
44.27294366153421 33.74249981241292 0
44.20674252409798 105.3147067945144 0
30.03578104131564 65.2810125270239 0
29.520606981103 50.49475373650036 0
38.13180544118746 132.8784777866078 0
21.86819455933864 7.121522213343118 0
15.82107622927722 33.78829597115666 0
42.20858648235248 57.23126723831756 0
29.99999999999993 82.86349215896749 0
29.71961448331053 90.56053395827168 0
53.48883668991137 133.5411739729089 0
6.5111633100015 6.458826031078667 0
53.4908071953336 6.497651556971642 0
6.509192804668947 133.5023484418689 0
44.30486741054796 84.99999999999959 0
15.69513258945201 84.99999999999999 0
35.37598696454936 25.27655342973586 0
24.49647534861109 114.7808519434693 0
24.83122762453064 25.16537955494807 0
35.16204395756462 114.7590393883269 0
34.20655922002003 57.8685652836639 0
12.43908669606039 121.2001826781351 0
47.56091330498715 18.79981732092 0
12.3857719148805 18.73489677135767 0
47.60817240359731 121.2443270925336 0
34.84321607542951 14.44754873698026 0
25.15678392510863 125.5524512633079 0
32.02787956574739 35.20778378755323 0
28.00831301876446 104.5231940634785 0
43.53038381650823 92.03872358758733 0
16.86677321088047 92.07798325838844 0

CELLS 216 852
2 0 12
2 12 13
2 13 14
2 14 15
2 15 16
2 16 1
2 6 28
2 28 29
2 29 30
2 30 31
2 31 32
2 32 7
3 64 9 93
3 65 3 94
3 4 67 95
3 20 61 76
3 21 22 60
3 38 39 68
3 69 40 79
3 68 39 84
3 56 46 79
3 67 57 95
3 55 65 94
3 54 64 93
3 40 41 79
3 21 60 101
3 26 5 71
3 42 11 73
3 8 34 70
3 2 18 72
3 46 56 121
3 47 57 122
3 57 47 77
3 60 22 74
3 59 77 103
3 48 60 74
3 74 59 102
3 19 20 76
3 62 45 85
3 63 44 86
3 10 66 100
3 75 58 103
3 66 56 100
3 48 74 102
3 77 47 103
3 5 27 71
3 11 43 73
3 17 2 72
3 33 8 70
3 60 48 96
3 50 62 85
3 51 63 86
3 61 46 76
3 34 9 64
3 18 3 65
3 10 42 66
3 4 26 67
3 38 68 78
3 58 75 124
3 77 59 123
3 61 20 101
3 46 61 97
3 47 75 103
3 37 38 78
3 44 63 119
3 45 62 120
3 46 69 79
3 57 67 113
3 56 66 112
3 65 55 110
3 64 54 111
3 49 68 84
3 30 62 98
3 14 63 99
3 68 48 78
3 59 74 108
3 78 48 102
3 56 80 121
3 57 81 122
3 63 14 83
3 62 30 82
3 62 50 98
3 63 51 99
3 22 23 74
3 40 69 84
3 58 78 102
3 41 10 100
3 29 30 98
3 13 14 99
3 20 21 101
3 34 64 115
3 18 65 116
3 67 26 118
3 66 42 117
3 39 40 84
3 69 49 84
3 68 49 96
3 48 68 96
3 82 31 90
3 83 15 91
3 52 82 90
3 53 83 91
3 49 69 97
3 74 23 108
3 9 35 93
3 3 19 94
3 25 4 95
3 69 46 97
3 26 71 118
3 42 73 117
3 70 34 115
3 72 18 116
3 55 76 121
3 54 75 122
3 14 15 83
3 30 31 82
3 52 64 88
3 53 65 87
3 66 51 86
3 67 50 85
3 64 52 115
3 65 53 116
3 51 66 117
3 50 67 118
3 31 32 90
3 15 16 91
3 12 13 92
3 28 29 89
3 70 52 90
3 72 53 91
3 50 71 89
3 51 73 92
3 75 54 93
3 76 55 94
3 57 77 95
3 75 35 124
3 25 77 123
3 24 25 123
3 35 36 124
3 52 70 115
3 53 72 116
3 71 50 118
3 73 51 117
3 67 85 113
3 66 86 112
3 87 65 110
3 88 64 111
3 76 46 121
3 75 47 122
3 87 44 119
3 88 45 120
3 32 7 107
3 16 1 106
3 0 12 105
3 6 28 104
3 7 33 107
3 1 17 106
3 43 0 105
3 27 6 104
3 35 75 93
3 19 76 94
3 77 25 95
3 92 13 99
3 89 29 98
3 56 79 100
3 79 41 100
3 49 97 114
3 23 24 108
3 36 37 109
3 51 92 99
3 50 89 98
3 37 78 109
3 78 58 109
3 97 61 114
3 71 27 104
3 73 43 105
3 33 70 107
3 17 72 106
3 82 52 120
3 83 53 119
3 96 49 114
3 60 96 114
3 53 87 119
3 52 88 120
3 80 44 110
3 81 45 111
3 44 80 112
3 45 81 113
3 55 80 110
3 54 81 111
3 80 56 112
3 81 57 113
3 63 83 119
3 62 82 120
3 80 55 121
3 81 54 122
3 44 87 110
3 45 88 111
3 86 44 112
3 85 45 113
3 89 71 104
3 92 73 105
3 72 91 106
3 70 90 107
3 102 59 103
3 90 32 107
3 91 16 106
3 12 92 105
3 28 89 104
3 61 101 114
3 101 60 114
3 58 102 103
3 109 58 124
3 59 108 123
3 108 24 123
3 36 109 124

CELL_TYPES 216
3
3
3
3
3
3
3
3
3
3
3
3
5
5
5
5
5
5
5
5
5
5
5
5
5
5
5
5
5
5
5
5
5
5
5
5
5
5
5
5
5
5
5
5
5
5
5
5
5
5
5
5
5
5
5
5
5
5
5
5
5
5
5
5
5
5
5
5
5
5
5
5
5
5
5
5
5
5
5
5
5
5
5
5
5
5
5
5
5
5
5
5
5
5
5
5
5
5
5
5
5
5
5
5
5
5
5
5
5
5
5
5
5
5
5
5
5
5
5
5
5
5
5
5
5
5
5
5
5
5
5
5
5
5
5
5
5
5
5
5
5
5
5
5
5
5
5
5
5
5
5
5
5
5
5
5
5
5
5
5
5
5
5
5
5
5
5
5
5
5
5
5
5
5
5
5
5
5
5
5
5
5
5
5
5
5
5
5
5
5
5
5
5
5
5
5
5
5
5
5
5
5
5
5
5
5
5
5
5
5
5
5
5
5
5
5

CELL_DATA 216
SCALARS CellEntityIds int 1
LOOKUP_TABLE default
1
1
1
1
1
1
2
2
2
2
2
2
3
3
3
3
3
3
3
3
3
3
3
3
3
3
3
3
3
3
3
3
3
3
3
3
3
3
3
3
3
3
3
3
3
3
3
3
3
3
3
3
3
3
3
3
3
3
3
3
3
3
3
3
3
3
3
3
3
3
3
3
3
3
3
3
3
3
3
3
3
3
3
3
3
3
3
3
3
3
3
3
3
3
3
3
3
3
3
3
3
3
3
3
3
3
3
3
3
3
3
3
3
3
3
3
3
3
3
3
3
3
3
3
3
3
3
3
3
3
3
3
3
3
3
3
3
3
3
3
3
3
3
3
3
3
3
3
3
3
3
3
3
3
3
3
3
3
3
3
3
3
3
3
3
3
3
3
3
3
3
3
3
3
3
3
3
3
3
3
3
3
3
3
3
3
3
3
3
3
3
3
3
3
3
3
3
3
3
3
3
3
3
3
3
3
3
3
3
3
3
3
3
3
3
3
